# vtk DataFile Version 3.0 
DAT Converted Data
ASCII
DATASET STRUCTURED_GRID
DIMENSIONS 50 50 1
POINTS 2500 float 
-1.000000 -1.000000 0.000000
-0.959184 -1.000000 0.000000
-0.918367 -1.000000 0.000000
-0.877551 -1.000000 0.000000
-0.836735 -1.000000 0.000000
-0.795918 -1.000000 0.000000
-0.755102 -1.000000 0.000000
-0.714286 -1.000000 0.000000
-0.673469 -1.000000 0.000000
-0.632653 -1.000000 0.000000
-0.591837 -1.000000 0.000000
-0.551020 -1.000000 0.000000
-0.510204 -1.000000 0.000000
-0.469388 -1.000000 0.000000
-0.428571 -1.000000 0.000000
-0.387755 -1.000000 0.000000
-0.346939 -1.000000 0.000000
-0.306122 -1.000000 0.000000
-0.265306 -1.000000 0.000000
-0.224490 -1.000000 0.000000
-0.183674 -1.000000 0.000000
-0.142857 -1.000000 0.000000
-0.102041 -1.000000 0.000000
-0.061225 -1.000000 0.000000
-0.020408 -1.000000 0.000000
0.020408 -1.000000 0.000000
0.061224 -1.000000 0.000000
0.102041 -1.000000 0.000000
0.142857 -1.000000 0.000000
0.183674 -1.000000 0.000000
0.224490 -1.000000 0.000000
0.265306 -1.000000 0.000000
0.306122 -1.000000 0.000000
0.346939 -1.000000 0.000000
0.387755 -1.000000 0.000000
0.428571 -1.000000 0.000000
0.469388 -1.000000 0.000000
0.510204 -1.000000 0.000000
0.551020 -1.000000 0.000000
0.591837 -1.000000 0.000000
0.632653 -1.000000 0.000000
0.673469 -1.000000 0.000000
0.714286 -1.000000 0.000000
0.755102 -1.000000 0.000000
0.795918 -1.000000 0.000000
0.836735 -1.000000 0.000000
0.877551 -1.000000 0.000000
0.918367 -1.000000 0.000000
0.959184 -1.000000 0.000000
1.000000 -1.000000 0.000000
-1.000000 -0.959184 0.000000
-0.959184 -0.959184 0.000000
-0.918367 -0.959184 0.000000
-0.877551 -0.959184 0.000000
-0.836735 -0.959184 0.000000
-0.795918 -0.959184 0.000000
-0.755102 -0.959184 0.000000
-0.714286 -0.959184 0.000000
-0.673469 -0.959184 0.000000
-0.632653 -0.959184 0.000000
-0.591837 -0.959184 0.000000
-0.551020 -0.959184 0.000000
-0.510204 -0.959184 0.000000
-0.469388 -0.959184 0.000000
-0.428571 -0.959184 0.000000
-0.387755 -0.959184 0.000000
-0.346939 -0.959184 0.000000
-0.306122 -0.959184 0.000000
-0.265306 -0.959184 0.000000
-0.224490 -0.959184 0.000000
-0.183674 -0.959184 0.000000
-0.142857 -0.959184 0.000000
-0.102041 -0.959184 0.000000
-0.061225 -0.959184 0.000000
-0.020408 -0.959184 0.000000
0.020408 -0.959184 0.000000
0.061224 -0.959184 0.000000
0.102041 -0.959184 0.000000
0.142857 -0.959184 0.000000
0.183674 -0.959184 0.000000
0.224490 -0.959184 0.000000
0.265306 -0.959184 0.000000
0.306122 -0.959184 0.000000
0.346939 -0.959184 0.000000
0.387755 -0.959184 0.000000
0.428571 -0.959184 0.000000
0.469388 -0.959184 0.000000
0.510204 -0.959184 0.000000
0.551020 -0.959184 0.000000
0.591837 -0.959184 0.000000
0.632653 -0.959184 0.000000
0.673469 -0.959184 0.000000
0.714286 -0.959184 0.000000
0.755102 -0.959184 0.000000
0.795918 -0.959184 0.000000
0.836735 -0.959184 0.000000
0.877551 -0.959184 0.000000
0.918367 -0.959184 0.000000
0.959184 -0.959184 0.000000
1.000000 -0.959184 0.000000
-1.000000 -0.918367 0.000000
-0.959184 -0.918367 0.000000
-0.918367 -0.918367 0.000000
-0.877551 -0.918367 0.000000
-0.836735 -0.918367 0.000000
-0.795918 -0.918367 0.000000
-0.755102 -0.918367 0.000000
-0.714286 -0.918367 0.000000
-0.673469 -0.918367 0.000000
-0.632653 -0.918367 0.000000
-0.591837 -0.918367 0.000000
-0.551020 -0.918367 0.000000
-0.510204 -0.918367 0.000000
-0.469388 -0.918367 0.000000
-0.428571 -0.918367 0.000000
-0.387755 -0.918367 0.000000
-0.346939 -0.918367 0.000000
-0.306122 -0.918367 0.000000
-0.265306 -0.918367 0.000000
-0.224490 -0.918367 0.000000
-0.183674 -0.918367 0.000000
-0.142857 -0.918367 0.000000
-0.102041 -0.918367 0.000000
-0.061225 -0.918367 0.000000
-0.020408 -0.918367 0.000000
0.020408 -0.918367 0.000000
0.061224 -0.918367 0.000000
0.102041 -0.918367 0.000000
0.142857 -0.918367 0.000000
0.183674 -0.918367 0.000000
0.224490 -0.918367 0.000000
0.265306 -0.918367 0.000000
0.306122 -0.918367 0.000000
0.346939 -0.918367 0.000000
0.387755 -0.918367 0.000000
0.428571 -0.918367 0.000000
0.469388 -0.918367 0.000000
0.510204 -0.918367 0.000000
0.551020 -0.918367 0.000000
0.591837 -0.918367 0.000000
0.632653 -0.918367 0.000000
0.673469 -0.918367 0.000000
0.714286 -0.918367 0.000000
0.755102 -0.918367 0.000000
0.795918 -0.918367 0.000000
0.836735 -0.918367 0.000000
0.877551 -0.918367 0.000000
0.918367 -0.918367 0.000000
0.959184 -0.918367 0.000000
1.000000 -0.918367 0.000000
-1.000000 -0.877551 0.000000
-0.959184 -0.877551 0.000000
-0.918367 -0.877551 0.000000
-0.877551 -0.877551 0.000000
-0.836735 -0.877551 0.000000
-0.795918 -0.877551 0.000000
-0.755102 -0.877551 0.000000
-0.714286 -0.877551 0.000000
-0.673469 -0.877551 0.000000
-0.632653 -0.877551 0.000000
-0.591837 -0.877551 0.000000
-0.551020 -0.877551 0.000000
-0.510204 -0.877551 0.000000
-0.469388 -0.877551 0.000000
-0.428571 -0.877551 0.000000
-0.387755 -0.877551 0.000000
-0.346939 -0.877551 0.000000
-0.306122 -0.877551 0.000000
-0.265306 -0.877551 0.000000
-0.224490 -0.877551 0.000000
-0.183674 -0.877551 0.000000
-0.142857 -0.877551 0.000000
-0.102041 -0.877551 0.000000
-0.061225 -0.877551 0.000000
-0.020408 -0.877551 0.000000
0.020408 -0.877551 0.000000
0.061224 -0.877551 0.000000
0.102041 -0.877551 0.000000
0.142857 -0.877551 0.000000
0.183674 -0.877551 0.000000
0.224490 -0.877551 0.000000
0.265306 -0.877551 0.000000
0.306122 -0.877551 0.000000
0.346939 -0.877551 0.000000
0.387755 -0.877551 0.000000
0.428571 -0.877551 0.000000
0.469388 -0.877551 0.000000
0.510204 -0.877551 0.000000
0.551020 -0.877551 0.000000
0.591837 -0.877551 0.000000
0.632653 -0.877551 0.000000
0.673469 -0.877551 0.000000
0.714286 -0.877551 0.000000
0.755102 -0.877551 0.000000
0.795918 -0.877551 0.000000
0.836735 -0.877551 0.000000
0.877551 -0.877551 0.000000
0.918367 -0.877551 0.000000
0.959184 -0.877551 0.000000
1.000000 -0.877551 0.000000
-1.000000 -0.836735 0.000000
-0.959184 -0.836735 0.000000
-0.918367 -0.836735 0.000000
-0.877551 -0.836735 0.000000
-0.836735 -0.836735 0.000000
-0.795918 -0.836735 0.000000
-0.755102 -0.836735 0.000000
-0.714286 -0.836735 0.000000
-0.673469 -0.836735 0.000000
-0.632653 -0.836735 0.000000
-0.591837 -0.836735 0.000000
-0.551020 -0.836735 0.000000
-0.510204 -0.836735 0.000000
-0.469388 -0.836735 0.000000
-0.428571 -0.836735 0.000000
-0.387755 -0.836735 0.000000
-0.346939 -0.836735 0.000000
-0.306122 -0.836735 0.000000
-0.265306 -0.836735 0.000000
-0.224490 -0.836735 0.000000
-0.183674 -0.836735 0.000000
-0.142857 -0.836735 0.000000
-0.102041 -0.836735 0.000000
-0.061225 -0.836735 0.000000
-0.020408 -0.836735 0.000000
0.020408 -0.836735 0.000000
0.061224 -0.836735 0.000000
0.102041 -0.836735 0.000000
0.142857 -0.836735 0.000000
0.183674 -0.836735 0.000000
0.224490 -0.836735 0.000000
0.265306 -0.836735 0.000000
0.306122 -0.836735 0.000000
0.346939 -0.836735 0.000000
0.387755 -0.836735 0.000000
0.428571 -0.836735 0.000000
0.469388 -0.836735 0.000000
0.510204 -0.836735 0.000000
0.551020 -0.836735 0.000000
0.591837 -0.836735 0.000000
0.632653 -0.836735 0.000000
0.673469 -0.836735 0.000000
0.714286 -0.836735 0.000000
0.755102 -0.836735 0.000000
0.795918 -0.836735 0.000000
0.836735 -0.836735 0.000000
0.877551 -0.836735 0.000000
0.918367 -0.836735 0.000000
0.959184 -0.836735 0.000000
1.000000 -0.836735 0.000000
-1.000000 -0.795918 0.000000
-0.959184 -0.795918 0.000000
-0.918367 -0.795918 0.000000
-0.877551 -0.795918 0.000000
-0.836735 -0.795918 0.000000
-0.795918 -0.795918 0.000000
-0.755102 -0.795918 0.000000
-0.714286 -0.795918 0.000000
-0.673469 -0.795918 0.000000
-0.632653 -0.795918 0.000000
-0.591837 -0.795918 0.000000
-0.551020 -0.795918 0.000000
-0.510204 -0.795918 0.000000
-0.469388 -0.795918 0.000000
-0.428571 -0.795918 0.000000
-0.387755 -0.795918 0.000000
-0.346939 -0.795918 0.000000
-0.306122 -0.795918 0.000000
-0.265306 -0.795918 0.000000
-0.224490 -0.795918 0.000000
-0.183674 -0.795918 0.000000
-0.142857 -0.795918 0.000000
-0.102041 -0.795918 0.000000
-0.061225 -0.795918 0.000000
-0.020408 -0.795918 0.000000
0.020408 -0.795918 0.000000
0.061224 -0.795918 0.000000
0.102041 -0.795918 0.000000
0.142857 -0.795918 0.000000
0.183674 -0.795918 0.000000
0.224490 -0.795918 0.000000
0.265306 -0.795918 0.000000
0.306122 -0.795918 0.000000
0.346939 -0.795918 0.000000
0.387755 -0.795918 0.000000
0.428571 -0.795918 0.000000
0.469388 -0.795918 0.000000
0.510204 -0.795918 0.000000
0.551020 -0.795918 0.000000
0.591837 -0.795918 0.000000
0.632653 -0.795918 0.000000
0.673469 -0.795918 0.000000
0.714286 -0.795918 0.000000
0.755102 -0.795918 0.000000
0.795918 -0.795918 0.000000
0.836735 -0.795918 0.000000
0.877551 -0.795918 0.000000
0.918367 -0.795918 0.000000
0.959184 -0.795918 0.000000
1.000000 -0.795918 0.000000
-1.000000 -0.755102 0.000000
-0.959184 -0.755102 0.000000
-0.918367 -0.755102 0.000000
-0.877551 -0.755102 0.000000
-0.836735 -0.755102 0.000000
-0.795918 -0.755102 0.000000
-0.755102 -0.755102 0.000000
-0.714286 -0.755102 0.000000
-0.673469 -0.755102 0.000000
-0.632653 -0.755102 0.000000
-0.591837 -0.755102 0.000000
-0.551020 -0.755102 0.000000
-0.510204 -0.755102 0.000000
-0.469388 -0.755102 0.000000
-0.428571 -0.755102 0.000000
-0.387755 -0.755102 0.000000
-0.346939 -0.755102 0.000000
-0.306122 -0.755102 0.000000
-0.265306 -0.755102 0.000000
-0.224490 -0.755102 0.000000
-0.183674 -0.755102 0.000000
-0.142857 -0.755102 0.000000
-0.102041 -0.755102 0.000000
-0.061225 -0.755102 0.000000
-0.020408 -0.755102 0.000000
0.020408 -0.755102 0.000000
0.061224 -0.755102 0.000000
0.102041 -0.755102 0.000000
0.142857 -0.755102 0.000000
0.183674 -0.755102 0.000000
0.224490 -0.755102 0.000000
0.265306 -0.755102 0.000000
0.306122 -0.755102 0.000000
0.346939 -0.755102 0.000000
[...]
POINT_DATA 2500
SCALARS s float 1
LOOKUP_TABLE s
70.599884
71.457848
71.131317
69.636490
67.046814
63.487019
59.123165
54.149830
48.775780
43.209663
37.646980
32.259445
27.187532
22.536329
18.374767
14.737655
11.629939
9.032309
6.907478
5.206405
3.873900
2.853324
2.090166
1.534486
1.142339
0.876337
0.705556
0.605016
0.554911
0.539743
0.547484
0.568832
0.596601
0.625257
0.650587
0.669472
0.679747
0.680103
0.670010
0.649642
0.619780
0.581706
0.537069
0.487741
0.435676
0.382773
0.330760
0.281108
0.234972
0.193169
74.434853
75.339455
74.995247
73.419312
70.689087
66.936089
62.335430
57.092255
51.426708
45.558792
39.694675
34.015442
28.669258
23.766996
19.381426
15.549362
12.276155
9.541602
7.306572
5.519553
4.122559
3.056069
2.262785
1.690184
1.291994
1.028764
0.867745
0.782323
0.751197
0.757472
0.787787
0.831559
0.880388
0.927611
0.968014
0.997654
1.013758
1.014660
0.999750
0.969392
0.924816
0.867968
0.801326
0.727693
0.649986
0.571038
0.493428
0.419345
0.350514
0.288151
77.181587
78.119644
77.762833
76.128883
73.298111
69.406898
64.636841
59.200691
53.326752
47.243183
41.163826
35.276516
29.734982
24.654293
20.110043
16.140566
12.751612
9.922456
7.612780
5.769451
4.332633
3.240888
2.435053
1.860849
1.470383
1.222702
1.083633
1.025176
1.024634
1.063676
1.127457
1.203877
1.283016
1.356761
1.418580
1.463426
1.487708
1.489285
1.467445
1.422835
1.357323
1.273802
1.175921
1.067803
0.953727
0.837850
0.723949
0.615238
0.514240
0.422738
78.707527
79.664238
79.300537
77.634506
74.748093
70.780396
65.916626
60.373802
54.384789
48.182335
41.984585
35.983204
30.335083
25.157730
20.528425
16.486496
13.038082
10.162370
7.818605
5.952998
4.504934
3.412158
2.614681
2.057412
1.691629
1.475495
1.373857
1.357579
1.402639
1.489183
1.600650
1.723082
1.844636
1.955307
2.046819
2.112651
2.148113
2.150429
2.118762
2.054160
1.959386
1.838643
1.697216
1.541055
1.376337
1.209050
1.044643
0.887743
0.741989
0.609948
78.937683
79.897362
79.532845
77.862312
74.967964
70.989365
66.112320
60.554543
54.549675
48.331238
42.118153
36.102783
30.442677
25.255905
20.620247
16.575472
13.128119
10.257757
7.924012
6.073476
4.645919
3.579444
2.814369
2.295793
1.975009
1.809955
1.764935
1.809907
1.919550
2.072313
2.249586
2.435091
2.614514
2.775380
2.907115
3.001239
3.051601
3.054579
3.009184
2.917017
2.782060
2.610313
2.409285
2.187419
1.953473
1.715937
1.482530
1.259812
1.052935
0.865537
77.860710
78.807564
78.448418
76.801247
73.947182
70.023949
65.214905
59.734901
53.814507
47.684216
41.560135
35.632233
30.056152
24.948683
20.386906
16.410500
13.026428
10.215143
7.937490
6.141521
4.768579
3.758348
3.052601
2.597659
2.345688
2.255044
2.289908
2.419511
2.617172
2.859370
3.124980
3.394793
3.651318
3.878870
4.063866
4.195258
4.264970
4.268273
4.203987
4.074460
3.885312
3.644940
3.363831
3.053759
2.726933
2.395185
2.069270
1.758328
1.469533
1.207954
75.529907
76.448830
76.101051
74.504059
71.736649
67.932526
63.269684
57.956688
52.217388
46.275597
40.341213
34.598816
29.199760
24.257757
19.848089
16.009838
12.750453
10.051762
7.876672
6.175749
4.893088
3.971140
3.354269
2.991020
2.835256
2.846352
2.988725
3.230978
3.544913
3.904633
4.285887
4.665751
5.022672
5.336835
5.590775
5.770117
5.864296
5.867152
5.777265
5.597975
5.337051
5.006036
4.619318
4.193040
3.743932
3.288206
2.840599
2.413628
2.017120
1.658014
72.058830
72.936157
72.605286
71.083008
68.444618
64.817833
60.372646
55.308254
49.838493
44.177193
38.524963
33.058331
27.922176
23.225563
19.040983
15.406498
12.330112
9.795514
7.768458
6.203020
5.047142
4.247159
3.751075
3.510589
3.482005
3.626245
3.908231
4.295935
4.759360
5.269697
5.798785
6.319031
6.803746
7.227878
7.569029
7.808593
7.932841
7.933797
7.809750
7.565320
7.211043
6.762509
6.239119
5.662628
5.055576
4.439806
3.835165
3.258512
2.723080
2.238207
67.612175
68.436295
68.127228
66.700859
64.228027
60.828777
56.662888
51.917576
46.793861
41.492809
36.203152
31.091097
26.293242
21.912672
18.018274
14.646754
11.806767
9.484299
7.648655
6.258296
5.265977
4.622898
4.281625
4.197814
4.330841
4.643588
5.101641
5.672221
6.323131
7.021955
7.735696
8.430956
9.074655
9.635220
10.084102
10.397418
10.557495
10.554096
10.385164
10.056942
9.583460
8.985399
8.288479
7.521521
6.714381
5.895988
5.092627
4.326621
3.615490
2.971588
62.392830
63.154713
62.871536
61.558174
59.280251
56.148861
52.311840
47.942402
43.226570
38.350498
33.489025
28.796299
24.399242
20.393959
16.845116
13.787835
11.231516
9.164814
7.561161
6.384113
5.592027
5.141755
4.991170
5.100519
5.432733
5.952928
6.627389
7.422350
8.302878
9.232142
10.171229
11.079662
11.916560
12.642390
13.221094
13.622347
13.823657
13.812040
13.585034
13.150904
12.527990
11.743265
10.830237
9.826446
8.770769
7.700875
6.650988
5.650169
4.721219
3.880210
56.626678
57.320148
57.066074
55.878269
53.816654
50.982517
47.510563
43.558640
39.296299
34.893318
30.509302
26.285173
22.337248
18.753984
15.595448
12.895042
10.662997
8.890910
7.556750
6.629677
6.074197
5.853374
5.930902
6.272051
6.843608
7.613048
8.547259
9.611132
10.766373
11.970821
13.178480
14.340412
15.406427
16.327492
17.058584
17.561686
17.808563
17.782965
17.481974
16.916317
16.109550
15.096251
13.919331
12.626853
11.268593
9.892769
8.543187
7.257043
6.063507
4.983130
50.546490
51.168339
50.945721
49.891384
48.059349
45.540657
42.456299
38.948051
35.168259
31.269581
27.395710
23.673771
20.209030
17.081993
14.347949
12.038529
10.164855
8.721611
7.691514
7.049577
6.766736
6.812541
7.156762
7.769886
8.622651
9.684858
10.923776
12.302511
13.778715
15.303945
16.823917
18.279833
19.610657
20.756289
21.661264
22.278605
22.573391
22.525583
22.131783
21.405645
20.376917
19.089151
17.596373
15.959080
14.239915
12.499557
10.793128
9.167426
7.659139
6.294097
44.376781
44.926701
44.737095
43.819744
42.222801
40.027065
37.339798
34.286659
31.002741
27.623558
24.276875
21.076017
18.115211
15.467031
13.182006
11.290011
9.803056
8.718897
8.024968
7.702106
7.727633
8.077550
8.727653
9.653577
10.829899
12.228538
13.816819
15.555573
17.397692
19.287533
21.161383
22.949245
24.577793
25.974375
27.071671
27.812536
28.154469
28.073166
27.564732
26.646254
25.354635
23.743813
21.880642
19.839975
17.699310
15.533710
13.411359
11.390133
9.515387
7.819030
38.320690
38.801033
38.645336
37.864582
36.501335
34.626560
32.334278
29.734594
26.945963
24.087358
21.271202
18.597536
16.149967
13.993450
12.173925
10.719549
9.643126
8.945276
8.617857
8.647165
9.016527
9.708004
10.703043
11.982077
13.523176
15.300029
17.279608
19.419966
21.668608
23.961882
26.225677
28.377672
30.331001
31.999176
33.301811
34.170551
34.554535
34.424786
33.776958
32.632057
31.035088
29.051701
26.763224
24.260687
21.638329
18.987427
16.390881
13.919048
11.627039
9.553589
32.550091
32.965508
32.844131
32.196377
31.059723
29.496042
27.587055
25.428408
23.123070
20.774645
18.481297
16.330740
14.396735
12.737140
11.393593
10.392550
9.747398
9.461188
9.529603
9.943694
10.692028
11.761960
13.139869
14.810335
16.754360
18.946901
21.354134
23.930885
26.618780
29.345596
32.026142
34.564972
36.860798
38.812378
40.325363
41.319401
41.734718
41.537403
40.722725
39.316090
37.371441
34.967319
32.200970
29.181194
26.020634
22.828377
19.703495
16.730043
13.973833
11.481077
27.199314
27.556309
27.469364
26.948616
26.027145
24.758747
23.214146
21.476036
19.633509
17.776398
15.990108
14.351325
12.924974
11.762519
10.901621
10.367007
10.172262
10.322194
10.815395
11.646593
12.808435
14.292419
16.088774
18.185278
20.565073
23.203777
26.066315
29.103954
32.252193
35.430004
38.540855
41.475876
44.118984
46.353756
48.071453
49.179344
49.608486
49.319935
48.308735
46.605087
44.272564
41.403519
38.112221
34.526482
30.778618
26.996767
23.297281
19.778852
16.518711
13.571021
22.362661
22.669100
22.616573
22.215290
21.494734
20.501854
19.297956
17.954588
16.548891
15.158849
13.858889
12.716199
11.788065
11.120323
10.746992
10.690937
10.965378
11.575933
12.522861
13.803106
15.411845
17.343166
19.589706
22.141195
24.981926
28.087473
31.421087
34.930340
38.544662
42.174427
45.712067
49.035599
52.014427
54.517189
56.420918
57.620647
58.038368
57.630260
56.391361
54.356998
51.600803
48.229507
44.375057
40.185013
35.812111
31.404245
27.095705
23.000353
19.207237
15.778728
18.095247
18.359854
18.341757
18.051620
17.516230
16.777046
15.887693
14.910576
13.913016
12.963254
12.126693
11.462685
11.022141
10.846068
10.965109
11.400007
12.162854
13.258865
14.688386
16.448761
18.535748
20.944099
23.667076
26.694830
30.011633
33.592243
37.397915
41.372601
45.440105
49.502972
53.443535
57.127758
60.411610
63.149784
65.205986
66.463745
66.836563
66.276176
64.777908
62.382412
59.173527
55.272461
50.828930
46.010311
40.989845
35.935272
30.998852
26.309666
21.968578
18.046131
14.416658
14.648545
14.665014
14.477595
14.111311
13.603559
13.002094
12.362257
11.743760
11.207286
10.811220
10.608775
10.645752
10.959072
11.576178
12.515286
13.786386
15.392819
17.333141
19.602936
22.196251
25.106226
28.324652
31.840330
35.636189
39.685371
43.946918
48.361515
52.848251
57.303162
61.600170
65.595055
69.132294
72.054512
74.213760
75.483482
75.769791
75.020683
73.232162
70.450256
66.768799
62.323032
57.279865
51.825829
46.153950
40.451130
34.886986
29.605249
24.718145
20.304018
11.316568
11.524800
11.576134
11.483381
11.270741
10.972965
10.633734
10.303391
10.036221
9.887503
9.910569
10.154134
10.660078
11.461890
12.583870
14.041141
15.840433
17.981516
20.459026
23.264349
26.387232
29.816648
33.540573
37.544495
41.808552
46.303501
50.986080
55.794380
60.644115
65.426773
70.010277
74.242958
77.960617
80.996582
83.193779
84.417664
84.568558
83.591797
81.484474
78.297913
74.135300
69.144905
63.509495
57.433270
51.127491
44.796700
38.626488
32.774040
27.361979
22.475729
8.761365
8.954585
9.041218
9.035760
8.962492
8.854863
8.754194
8.707788
8.766574
8.982449
9.405539
10.081567
11.049562
12.340106
13.974277
15.963406
18.309650
21.007349
24.044901
27.406862
31.075901
35.034073
39.263023
43.742840
48.449387
53.350281
58.400059
63.535160
68.669724
73.693214
78.470695
82.846581
86.651680
89.713638
91.869553
92.979706
92.940735
91.696617
89.246101
85.645447
81.006203
75.488037
69.287491
62.624081
55.724892
48.809727
42.077999
35.698498
29.802755
24.482185
6.701107
6.887224
7.009634
7.084892
7.138187
7.202896
7.319541
7.534169
7.896221
8.456051
9.262220
10.358796
11.782857
13.562457
15.715254
18.247976
21.156809
24.428711
28.043453
31.976049
36.199223
40.685295
45.407005
50.336926
55.445175
60.695568
66.040688
71.416557
76.737900
81.895210
86.754440
91.160255
94.942955
97.928833
99.953156
100.000000
100.000000
99.038544
96.226509
92.212807
87.115891
81.104584
74.386459
67.193176
59.764359
52.331909
45.106155
38.265015
31.946947
26.247929
5.076086
5.262027
5.420589
5.570713
5.739211
5.960463
6.275553
6.730813
7.375825
8.260974
9.434660
10.940407
12.814057
15.081379
17.756306
20.840103
24.321562
28.178341
32.379227
36.887039
41.661774
46.663265
51.852844
57.193523
62.648312
68.176659
73.729622
79.244225
84.638275
89.806686
94.620453
98.929253
100.000000
100.000000
100.000000
100.000000
100.000000
100.000000
100.000000
97.738663
92.218132
85.766273
78.598198
70.953865
63.081417
55.220963
47.590183
40.373096
33.712681
27.707731
3.822502
4.014019
4.208821
4.428488
4.702037
5.065734
5.562338
6.239738
7.148987
8.341780
9.867481
11.769942
14.084296
16.834126
20.029285
23.664721
27.720491
32.163166
36.948383
42.024342
47.335747
52.827431
58.447052
64.146225
69.879623
75.601952
81.263298
86.803276
92.145363
97.192505
100.000000
100.000000
100.000000
100.000000
100.000000
100.000000
100.000000
100.000000
100.000000
100.000000
96.104393
89.281670
81.749832
73.752708
65.542358
57.362625
49.434483
41.944553
35.037594
28.813271
2.877035
3.078576
3.309218
3.593339
3.962592
4.455789
5.118209
6.000268
7.155493
8.637845
10.498487
12.782214
15.523787
18.744608
22.450073
26.628044
31.248686
36.265953
41.620514
47.243908
53.063389
59.006695
65.005898
70.999702
76.933502
82.757065
88.420143
93.866585
99.028168
100.000000
100.000000
100.000000
100.000000
100.000000
100.000000
100.000000
100.000000
100.000000
100.000000
100.000000
98.620003
91.511559
83.718170
75.482735
67.056221
58.681385
50.578064
42.931744
35.885986
29.539217
2.180191
2.394824
2.660220
3.003612
3.459540
4.069791
4.882730
5.951939
7.334085
9.086028
11.261250
13.905863
17.054422
20.726078
24.921438
29.620661
34.783146
40.349098
46.242874
52.377846
58.662266
65.005226
71.321854
77.536865
83.585777
89.413391
94.969872
100.000000
100.000000
100.000000
100.000000
100.000000
100.000000
100.000000
100.000000
100.000000
100.000000
100.000000
100.000000
100.000000
99.676987
92.381004
84.440910
76.093697
67.584137
59.148869
51.002060
43.324173
36.254536
29.888180
1.678472
1.907867
2.206081
2.603142
3.136553
3.851261
4.798987
6.036802
7.624839
9.623152
12.087775
15.066269
18.593008
22.684782
27.337162
32.522232
38.188103
44.260612
50.647068
57.241863
63.933403
70.611328
77.173080
83.528885
89.604156
95.338959
100.000000
100.000000
100.000000
100.000000
100.000000
100.000000
100.000000
100.000000
100.000000
100.000000
100.000000
100.000000
100.000000
100.000000
99.262001
91.886749
83.923485
75.598442
67.145103
58.789085
50.734409
43.152695
36.176048
29.894032
1.325550
1.570008
1.898143
2.342595
2.943719
3.749574
4.815223
6.201231
7.971198
10.188352
12.911231
16.188772
20.055063
24.524426
29.587284
35.207558
41.322010
47.842045
54.657906
61.644993
68.671852
75.608665
82.335236
88.747375
94.760658
100.000000
100.000000
100.000000
100.000000
100.000000
100.000000
100.000000
100.000000
100.000000
100.000000
100.000000
100.000000
100.000000
100.000000
100.000000
97.438622
90.099213
82.240875
74.074463
65.817467
57.679848
49.851242
42.490856
35.720787
29.623196
1.082623
1.341168
1.695326
2.180046
2.838252
3.720838
4.885937
6.397314
8.321739
10.725305
13.668756
17.202139
21.359074
26.151327
31.564245
37.553810
44.045845
50.937923
58.103935
65.401131
72.679077
79.789383
86.595032
92.978210
98.845329
100.000000
100.000000
100.000000
100.000000
100.000000
100.000000
100.000000
100.000000
100.000000
100.000000
100.000000
100.000000
100.000000
100.000000
100.000000
94.343796
87.158905
79.534050
71.660690
63.736027
55.950222
48.474758
41.453209
34.995171
29.173719
0.918195
1.188709
1.564033
2.081007
2.784681
3.728312
4.972585
6.583926
8.631704
11.184318
14.304205
18.042116
22.430946
27.479885
33.169453
39.448257
46.232094
53.405914
60.828758
68.341400
75.776215
82.967964
89.764465
96.035698
100.000000
100.000000
100.000000
100.000000
100.000000
100.000000
100.000000
100.000000
100.000000
100.000000
100.000000
100.000000
100.000000
100.000000
100.000000
96.582802
90.178810
83.267502
76.001564
68.549561
61.084812
53.774151
46.767662
40.190552
34.137806
28.672029
0.807468
1.086884
1.477683
2.018082
2.754687
3.742470
5.043966
6.727499
8.864255
11.524175
14.770711
18.654789
23.208300
28.437897
34.319714
40.795895
47.773556
55.126842
62.702145
70.326225
77.816856
84.994545
91.694298
97.775894
100.000000
100.000000
100.000000
100.000000
100.000000
100.000000
100.000000
100.000000
100.000000
100.000000
100.000000
100.000000
100.000000
100.000000
96.937904
91.319946
85.195686
78.674667
71.886894
64.975266
58.086323
51.360729
44.924564
38.882442
33.313057
28.267483
0.731529
1.016057
1.416006
1.970390
2.726691
3.740832
5.076342
6.802525
8.991440
11.713656
15.032842
18.999500
23.644232
28.971272
34.952988
41.526226
48.591194
56.013561
63.629845
71.255943
78.698311
85.766472
92.285606
98.107826
100.000000
100.000000
100.000000
100.000000
100.000000
100.000000
100.000000
100.000000
100.000000
100.000000
100.000000
100.000000
100.000000
95.682007
90.770973
85.413399
79.680275
73.661560
67.462708
61.198952
54.987869
48.941803
43.160847
37.727333
32.702415
28.124891
0.676454
0.961838
1.364245
1.922857
2.685297
3.707592
5.053319
6.791743
8.994753
11.732551
15.068149
19.051003
23.710140
29.047581
35.032684
41.598404
48.640106
56.017670
63.560993
71.078743
78.369888
85.236717
91.498039
97.001236
100.000000
100.000000
100.000000
100.000000
100.000000
100.000000
100.000000
100.000000
100.000000
100.000000
100.000000
97.116707
93.167732
88.834534
84.152618
79.166725
73.933632
68.522644
63.013474
57.492279
52.046219
46.757824
41.699776
36.930965
32.494125
28.415339
0.632422
0.914210
1.312317
1.865453
2.620627
3.633091
4.965490
6.685999
8.865258
11.572075
14.867927
18.800598
23.397306
28.658104
34.550213
41.004242
47.912960
55.133392
62.492321
69.795113
76.837379
83.418228
89.353859
94.490036
98.711815
100.000000
100.000000
100.000000
100.000000
100.000000
100.000000
100.000000
99.566238
96.655518
93.363426
89.747925
85.854820
81.722244
77.385551
72.881844
68.253067
63.547207
58.817539
54.120365
49.511532
45.042820
40.758621
36.693600
32.871548
29.305630
0.592894
0.866705
1.254003
1.792412
2.527583
3.513144
4.809850
6.483752
8.603199
11.234609
14.437080
18.256147
22.717018
27.818090
33.525360
39.768684
46.440556
53.398129
60.468651
67.458183
74.163193
80.383751
85.937233
90.670967
94.472275
97.274872
99.060860
99.858147
99.733803
98.784340
97.124397
94.875237
92.154579
89.068878
85.708633
82.146828
78.440063
74.631706
70.755814
66.841156
62.914364
59.001820
55.130089
51.325291
47.611553
44.009418
40.534481
37.196739
34.000786
30.946867
0.553876
0.815643
1.186178
1.701446
2.405065
3.348247
4.588975
6.190233
8.217113
10.732738
13.793068
17.440876
21.699221
26.565178
32.004436
37.947662
44.289307
50.889549
57.579552
64.169922
70.462021
76.260880
81.388718
85.697464
89.078918
91.471375
92.862015
93.284775
92.814209
91.556107
89.636368
87.189285
84.346939
81.230576
77.944725
74.574287
71.184227
67.821373
64.517342
61.291927
58.156208
55.114902
52.167912
49.311184
46.537064
43.834694
41.190647
38.590061
36.018238
33.462643
0.513290
0.759472
1.108101
1.592993
2.255147
3.142676
4.310025
5.816293
7.722486
10.087662
12.964001
16.391098
20.389774
24.956135
30.056417
35.623550
41.555992
47.719585
53.952538
60.073509
65.892433
71.222954
75.895439
79.769203
82.742531
84.759331
85.811844
85.938950
85.220551
83.768745
81.717010
79.208649
76.385918
73.380798
70.308212
67.261887
64.312698
61.509216
58.879509
56.433876
54.167694
52.064175
50.096802
48.231598
46.429272
44.647629
42.844196