# vtk DataFile Version 3.0 
DAT Converted Data
ASCII
DATASET STRUCTURED_GRID
DIMENSIONS 50 50 1
POINTS 2500 float 
-1.000000 -1.000000 0.000000
-0.959184 -1.000000 0.000000
-0.918367 -1.000000 0.000000
-0.877551 -1.000000 0.000000
-0.836735 -1.000000 0.000000
-0.795918 -1.000000 0.000000
-0.755102 -1.000000 0.000000
-0.714286 -1.000000 0.000000
-0.673469 -1.000000 0.000000
-0.632653 -1.000000 0.000000
-0.591837 -1.000000 0.000000
-0.551020 -1.000000 0.000000
-0.510204 -1.000000 0.000000
-0.469388 -1.000000 0.000000
-0.428571 -1.000000 0.000000
-0.387755 -1.000000 0.000000
-0.346939 -1.000000 0.000000
-0.306122 -1.000000 0.000000
-0.265306 -1.000000 0.000000
-0.224490 -1.000000 0.000000
-0.183674 -1.000000 0.000000
-0.142857 -1.000000 0.000000
-0.102041 -1.000000 0.000000
-0.061225 -1.000000 0.000000
-0.020408 -1.000000 0.000000
0.020408 -1.000000 0.000000
0.061224 -1.000000 0.000000
0.102041 -1.000000 0.000000
0.142857 -1.000000 0.000000
0.183674 -1.000000 0.000000
0.224490 -1.000000 0.000000
0.265306 -1.000000 0.000000
0.306122 -1.000000 0.000000
0.346939 -1.000000 0.000000
0.387755 -1.000000 0.000000
0.428571 -1.000000 0.000000
0.469388 -1.000000 0.000000
0.510204 -1.000000 0.000000
0.551020 -1.000000 0.000000
0.591837 -1.000000 0.000000
0.632653 -1.000000 0.000000
0.673469 -1.000000 0.000000
0.714286 -1.000000 0.000000
0.755102 -1.000000 0.000000
0.795918 -1.000000 0.000000
0.836735 -1.000000 0.000000
0.877551 -1.000000 0.000000
0.918367 -1.000000 0.000000
0.959184 -1.000000 0.000000
1.000000 -1.000000 0.000000
-1.000000 -0.959184 0.000000
-0.959184 -0.959184 0.000000
-0.918367 -0.959184 0.000000
-0.877551 -0.959184 0.000000
-0.836735 -0.959184 0.000000
-0.795918 -0.959184 0.000000
-0.755102 -0.959184 0.000000
-0.714286 -0.959184 0.000000
-0.673469 -0.959184 0.000000
-0.632653 -0.959184 0.000000
-0.591837 -0.959184 0.000000
-0.551020 -0.959184 0.000000
-0.510204 -0.959184 0.000000
-0.469388 -0.959184 0.000000
-0.428571 -0.959184 0.000000
-0.387755 -0.959184 0.000000
-0.346939 -0.959184 0.000000
-0.306122 -0.959184 0.000000
-0.265306 -0.959184 0.000000
-0.224490 -0.959184 0.000000
-0.183674 -0.959184 0.000000
-0.142857 -0.959184 0.000000
-0.102041 -0.959184 0.000000
-0.061225 -0.959184 0.000000
-0.020408 -0.959184 0.000000
0.020408 -0.959184 0.000000
0.061224 -0.959184 0.000000
0.102041 -0.959184 0.000000
0.142857 -0.959184 0.000000
0.183674 -0.959184 0.000000
0.224490 -0.959184 0.000000
0.265306 -0.959184 0.000000
0.306122 -0.959184 0.000000
0.346939 -0.959184 0.000000
0.387755 -0.959184 0.000000
0.428571 -0.959184 0.000000
0.469388 -0.959184 0.000000
0.510204 -0.959184 0.000000
0.551020 -0.959184 0.000000
0.591837 -0.959184 0.000000
0.632653 -0.959184 0.000000
0.673469 -0.959184 0.000000
0.714286 -0.959184 0.000000
0.755102 -0.959184 0.000000
0.795918 -0.959184 0.000000
0.836735 -0.959184 0.000000
0.877551 -0.959184 0.000000
0.918367 -0.959184 0.000000
0.959184 -0.959184 0.000000
1.000000 -0.959184 0.000000
-1.000000 -0.918367 0.000000
-0.959184 -0.918367 0.000000
-0.918367 -0.918367 0.000000
-0.877551 -0.918367 0.000000
-0.836735 -0.918367 0.000000
-0.795918 -0.918367 0.000000
-0.755102 -0.918367 0.000000
-0.714286 -0.918367 0.000000
-0.673469 -0.918367 0.000000
-0.632653 -0.918367 0.000000
-0.591837 -0.918367 0.000000
-0.551020 -0.918367 0.000000
-0.510204 -0.918367 0.000000
-0.469388 -0.918367 0.000000
-0.428571 -0.918367 0.000000
-0.387755 -0.918367 0.000000
-0.346939 -0.918367 0.000000
-0.306122 -0.918367 0.000000
-0.265306 -0.918367 0.000000
-0.224490 -0.918367 0.000000
-0.183674 -0.918367 0.000000
-0.142857 -0.918367 0.000000
-0.102041 -0.918367 0.000000
-0.061225 -0.918367 0.000000
-0.020408 -0.918367 0.000000
0.020408 -0.918367 0.000000
0.061224 -0.918367 0.000000
0.102041 -0.918367 0.000000
0.142857 -0.918367 0.000000
0.183674 -0.918367 0.000000
0.224490 -0.918367 0.000000
0.265306 -0.918367 0.000000
0.306122 -0.918367 0.000000
0.346939 -0.918367 0.000000
0.387755 -0.918367 0.000000
0.428571 -0.918367 0.000000
0.469388 -0.918367 0.000000
0.510204 -0.918367 0.000000
0.551020 -0.918367 0.000000
0.591837 -0.918367 0.000000
0.632653 -0.918367 0.000000
0.673469 -0.918367 0.000000
0.714286 -0.918367 0.000000
0.755102 -0.918367 0.000000
0.795918 -0.918367 0.000000
0.836735 -0.918367 0.000000
0.877551 -0.918367 0.000000
0.918367 -0.918367 0.000000
0.959184 -0.918367 0.000000
1.000000 -0.918367 0.000000
-1.000000 -0.877551 0.000000
-0.959184 -0.877551 0.000000
-0.918367 -0.877551 0.000000
-0.877551 -0.877551 0.000000
-0.836735 -0.877551 0.000000
-0.795918 -0.877551 0.000000
-0.755102 -0.877551 0.000000
-0.714286 -0.877551 0.000000
-0.673469 -0.877551 0.000000
-0.632653 -0.877551 0.000000
-0.591837 -0.877551 0.000000
-0.551020 -0.877551 0.000000
-0.510204 -0.877551 0.000000
-0.469388 -0.877551 0.000000
-0.428571 -0.877551 0.000000
-0.387755 -0.877551 0.000000
-0.346939 -0.877551 0.000000
-0.306122 -0.877551 0.000000
-0.265306 -0.877551 0.000000
-0.224490 -0.877551 0.000000
-0.183674 -0.877551 0.000000
-0.142857 -0.877551 0.000000
-0.102041 -0.877551 0.000000
-0.061225 -0.877551 0.000000
-0.020408 -0.877551 0.000000
0.020408 -0.877551 0.000000
0.061224 -0.877551 0.000000
0.102041 -0.877551 0.000000
0.142857 -0.877551 0.000000
0.183674 -0.877551 0.000000
0.224490 -0.877551 0.000000
0.265306 -0.877551 0.000000
0.306122 -0.877551 0.000000
0.346939 -0.877551 0.000000
0.387755 -0.877551 0.000000
0.428571 -0.877551 0.000000
0.469388 -0.877551 0.000000
0.510204 -0.877551 0.000000
0.551020 -0.877551 0.000000
0.591837 -0.877551 0.000000
0.632653 -0.877551 0.000000
0.673469 -0.877551 0.000000
0.714286 -0.877551 0.000000
0.755102 -0.877551 0.000000
0.795918 -0.877551 0.000000
0.836735 -0.877551 0.000000
0.877551 -0.877551 0.000000
0.918367 -0.877551 0.000000
0.959184 -0.877551 0.000000
1.000000 -0.877551 0.000000
-1.000000 -0.836735 0.000000
-0.959184 -0.836735 0.000000
-0.918367 -0.836735 0.000000
-0.877551 -0.836735 0.000000
-0.836735 -0.836735 0.000000
-0.795918 -0.836735 0.000000
-0.755102 -0.836735 0.000000
-0.714286 -0.836735 0.000000
-0.673469 -0.836735 0.000000
-0.632653 -0.836735 0.000000
-0.591837 -0.836735 0.000000
-0.551020 -0.836735 0.000000
-0.510204 -0.836735 0.000000
-0.469388 -0.836735 0.000000
-0.428571 -0.836735 0.000000
-0.387755 -0.836735 0.000000
-0.346939 -0.836735 0.000000
-0.306122 -0.836735 0.000000
-0.265306 -0.836735 0.000000
-0.224490 -0.836735 0.000000
-0.183674 -0.836735 0.000000
-0.142857 -0.836735 0.000000
-0.102041 -0.836735 0.000000
-0.061225 -0.836735 0.000000
-0.020408 -0.836735 0.000000
0.020408 -0.836735 0.000000
0.061224 -0.836735 0.000000
0.102041 -0.836735 0.000000
0.142857 -0.836735 0.000000
0.183674 -0.836735 0.000000
0.224490 -0.836735 0.000000
0.265306 -0.836735 0.000000
0.306122 -0.836735 0.000000
0.346939 -0.836735 0.000000
0.387755 -0.836735 0.000000
0.428571 -0.836735 0.000000
0.469388 -0.836735 0.000000
0.510204 -0.836735 0.000000
0.551020 -0.836735 0.000000
0.591837 -0.836735 0.000000
0.632653 -0.836735 0.000000
0.673469 -0.836735 0.000000
0.714286 -0.836735 0.000000
0.755102 -0.836735 0.000000
0.795918 -0.836735 0.000000
0.836735 -0.836735 0.000000
0.877551 -0.836735 0.000000
0.918367 -0.836735 0.000000
0.959184 -0.836735 0.000000
1.000000 -0.836735 0.000000
-1.000000 -0.795918 0.000000
-0.959184 -0.795918 0.000000
-0.918367 -0.795918 0.000000
-0.877551 -0.795918 0.000000
-0.836735 -0.795918 0.000000
-0.795918 -0.795918 0.000000
-0.755102 -0.795918 0.000000
-0.714286 -0.795918 0.000000
-0.673469 -0.795918 0.000000
-0.632653 -0.795918 0.000000
-0.591837 -0.795918 0.000000
-0.551020 -0.795918 0.000000
-0.510204 -0.795918 0.000000
-0.469388 -0.795918 0.000000
-0.428571 -0.795918 0.000000
-0.387755 -0.795918 0.000000
-0.346939 -0.795918 0.000000
-0.306122 -0.795918 0.000000
-0.265306 -0.795918 0.000000
-0.224490 -0.795918 0.000000
-0.183674 -0.795918 0.000000
-0.142857 -0.795918 0.000000
-0.102041 -0.795918 0.000000
-0.061225 -0.795918 0.000000
-0.020408 -0.795918 0.000000
0.020408 -0.795918 0.000000
0.061224 -0.795918 0.000000
0.102041 -0.795918 0.000000
0.142857 -0.795918 0.000000
0.183674 -0.795918 0.000000
0.224490 -0.795918 0.000000
0.265306 -0.795918 0.000000
0.306122 -0.795918 0.000000
0.346939 -0.795918 0.000000
0.387755 -0.795918 0.000000
0.428571 -0.795918 0.000000
0.469388 -0.795918 0.000000
0.510204 -0.795918 0.000000
0.551020 -0.795918 0.000000
0.591837 -0.795918 0.000000
0.632653 -0.795918 0.000000
0.673469 -0.795918 0.000000
0.714286 -0.795918 0.000000
0.755102 -0.795918 0.000000
0.795918 -0.795918 0.000000
0.836735 -0.795918 0.000000
0.877551 -0.795918 0.000000
0.918367 -0.795918 0.000000
0.959184 -0.795918 0.000000
1.000000 -0.795918 0.000000
-1.000000 -0.755102 0.000000
-0.959184 -0.755102 0.000000
-0.918367 -0.755102 0.000000
-0.877551 -0.755102 0.000000
-0.836735 -0.755102 0.000000
-0.795918 -0.755102 0.000000
-0.755102 -0.755102 0.000000
-0.714286 -0.755102 0.000000
-0.673469 -0.755102 0.000000
-0.632653 -0.755102 0.000000
-0.591837 -0.755102 0.000000
-0.551020 -0.755102 0.000000
-0.510204 -0.755102 0.000000
-0.469388 -0.755102 0.000000
-0.428571 -0.755102 0.000000
-0.387755 -0.755102 0.000000
-0.346939 -0.755102 0.000000
-0.306122 -0.755102 0.000000
-0.265306 -0.755102 0.000000
-0.224490 -0.755102 0.000000
-0.183674 -0.755102 0.000000
-0.142857 -0.755102 0.000000
-0.102041 -0.755102 0.000000
-0.061225 -0.755102 0.000000
-0.020408 -0.755102 0.000000
0.020408 -0.755102 0.000000
0.061224 -0.755102 0.000000
0.102041 -0.755102 0.000000
0.142857 -0.755102 0.000000
0.183674 -0.755102 0.000000
0.224490 -0.755102 0.000000
0.265306 -0.755102 0.000000
0.306122 -0.755102 0.000000
0.346939 -0.755102 0.000000
[...]
POINT_DATA 2500
SCALARS s float 1
LOOKUP_TABLE s
70.599884
71.457848
71.131317
69.636490
67.046814
63.487019
59.123165
54.149830
48.775784
43.209663
37.646980
32.259445
27.187532
22.536329
18.374767
14.737655
11.629939
9.032309
6.907478
5.206405
3.873901
2.853324
2.090166
1.534486
1.142339
0.876337
0.705556
0.605016
0.554911
0.539743
0.547484
0.568832
0.596601
0.625257
0.650587
0.669472
0.679747
0.680103
0.670010
0.649642
0.619780
0.581706
0.537069
0.487741
0.435676
0.382773
0.330760
0.281108
0.234972
0.193169
74.434853
75.339455
74.995247
73.419312
70.689087
66.936089
62.335430
57.092255
51.426708
45.558792
39.694675
34.015442
28.669258
23.766996
19.381426
15.549362
12.276155
9.541603
7.306572
5.519553
4.122560
3.056070
2.262786
1.690185
1.291994
1.028764
0.867745
0.782323
0.751197
0.757472
0.787787
0.831559
0.880388
0.927611
0.968014
0.997654
1.013758
1.014660
0.999750
0.969392
0.924816
0.867968
0.801326
0.727693
0.649986
0.571038
0.493427
0.419345
0.350513
0.288150
77.181587
78.119644
77.762833
76.128883
73.298111
69.406898
64.636841
59.200691
53.326752
47.243183
41.163826
35.276520
29.734983
24.654295
20.110043
16.140568
12.751613
9.922457
7.612781
5.769452
4.332634
3.240890
2.435054
1.860850
1.470384
1.222702
1.083633
1.025176
1.024634
1.063677
1.127458
1.203877
1.283016
1.356761
1.418580
1.463426
1.487708
1.489285
1.467445
1.422834
1.357323
1.273801
1.175920
1.067802
0.953726
0.837849
0.723948
0.615237
0.514238
0.422737
78.707527
79.664238
79.300537
77.634506
74.748093
70.780396
65.916626
60.373802
54.384792
48.182335
41.984589
35.983208
30.335085
25.157732
20.528427
16.486500
13.038084
10.162372
7.818608
5.953001
4.504936
3.412160
2.614683
2.057414
1.691630
1.475497
1.373859
1.357580
1.402640
1.489184
1.600650
1.723082
1.844637
1.955307
2.046819
2.112651
2.148113
2.150428
2.118761
2.054159
1.959385
1.838641
1.697214
1.541053
1.376335
1.209048
1.044640
0.887741
0.741986
0.609946
78.937683
79.897362
79.532845
77.862312
74.967964
70.989365
66.112320
60.554546
54.549675
48.331242
42.118156
36.102787
30.442680
25.255909
20.620251
16.575478
13.128123
10.257762
7.924017
6.073482
4.645924
3.579449
2.814374
2.295796
1.975013
1.809958
1.764937
1.809909
1.919552
2.072315
2.249587
2.435091
2.614514
2.775380
2.907115
3.001239
3.051600
3.054578
3.009182
2.917014
2.782058
2.610310
2.409281
2.187415
1.953468
1.715932
1.482525
1.259807
1.052930
0.865531
77.860710
78.807564
78.448425
76.801247
73.947182
70.023949
65.214912
59.734905
53.814510
47.684223
41.560143
35.632240
30.056162
24.948692
20.386917
16.410511
13.026439
10.215154
7.937501
6.141531
4.768589
3.758358
3.052610
2.597667
2.345696
2.255051
2.289914
2.419516
2.617176
2.859373
3.124982
3.394795
3.651319
3.878870
4.063866
4.195256
4.264968
4.268270
4.203983
4.074455
3.885307
3.644934
3.363824
3.053751
2.726924
2.395175
2.069260
1.758317
1.469522
1.207943
75.529907
76.448837
76.101051
74.504059
71.736656
67.932533
63.269691
57.956696
52.217400
46.275612
40.341228
34.598835
29.199780
24.257776
19.848110
16.009859
12.750475
10.051785
7.876694
6.175770
4.893109
3.971160
3.354288
2.991037
2.835271
2.846365
2.988737
3.230988
3.544921
3.904639
4.285892
4.665754
5.022674
5.336835
5.590775
5.770114
5.864292
5.867146
5.777257
5.597965
5.337039
5.006023
4.619303
4.193023
3.743913
3.288187
2.840578
2.413606
2.017098
1.657991
72.058838
72.936157
72.605293
71.083015
68.444633
64.817848
60.372662
55.308273
49.838516
44.177219
38.524994
33.058361
27.922213
23.225603
19.041025
15.406542
12.330157
9.795560
7.768504
6.203064
5.047184
4.247199
3.751112
3.510623
3.482036
3.626272
3.908255
4.295954
4.759377
5.269709
5.798794
6.319037
6.803749
7.227878
7.569026
7.808587
7.932833
7.933785
7.809734
7.565300
7.211020
6.762483
6.239089
5.662594
5.055540
4.439766
3.835123
3.258468
2.723035
2.238162
67.612183
68.436310
68.127243
66.700882
64.228050
60.828804
56.662918
51.917618
46.793907
41.492863
36.203213
31.091162
26.293316
21.912750
18.018358
14.646842
11.806857
9.484390
7.648746
6.258384
5.266062
4.622978
4.281700
4.197882
4.330903
4.643642
5.101687
5.672260
6.323163
7.021981
7.735714
8.430968
9.074661
9.635220
10.084096
10.397407
10.557478
10.554072
10.385133
10.056905
9.583414
8.985347
8.288419
7.521453
6.714307
5.895908
5.092542
4.326533
3.615399
2.971497
62.392845
63.154736
62.871563
61.558208
59.280293
56.148914
52.311901
47.942478
43.226662
38.350601
33.489140
28.796429
24.399387
20.394114
16.845280
13.788008
11.231693
9.164993
7.561339
6.384287
5.592194
5.141913
4.991317
5.100653
5.432853
5.953033
6.627480
7.422427
8.302940
9.232191
10.171266
11.079686
11.916573
12.642391
13.221084
13.622324
13.823623
13.811993
13.584974
13.150829
12.527901
11.743162
10.830120
9.826313
8.770624
7.700719
6.650822
5.649996
4.721042
3.880031
56.626705
57.320187
57.066128
55.878334
53.816734
50.982616
47.510685
43.558784
39.296471
34.893517
30.509529
26.285425
22.337524
18.754284
15.595767
12.895375
10.663339
8.891255
7.557094
6.630013
6.074520
5.853679
5.931186
6.272310
6.843840
7.613252
8.547435
9.611280
10.766494
11.970916
13.178551
14.340459
15.406451
16.327494
17.058563
17.561644
17.808496
17.782873
17.481857
16.916172
16.109379
15.096051
13.919103
12.626597
11.268312
9.892467
8.542867
7.256709
6.063164
4.982785
50.546547
51.168411
50.945820
49.891510
48.059505
45.540848
42.456535
38.948330
35.168587
31.269958
27.396139
23.674252
20.209557
17.082563
14.348555
12.039162
10.165504
8.722268
7.692167
7.050216
6.767349
6.813120
7.157300
7.770377
8.623093
9.685246
10.924109
12.302793
13.778944
15.304125
16.824051
18.279921
19.610703
20.756292
21.661224
22.278522
22.573263
22.525410
22.131559
21.405373
20.376593
19.088772
17.595940
15.958596
14.239383
12.498982
10.792519
9.166791
7.658488
6.293440
44.376884
44.926838
44.737274
43.819977
42.223091
40.027424
37.340237
34.287178
31.003353
27.624264
24.277678
21.076912
18.116194
15.468094
13.183136
11.291192
9.804270
8.720123
8.026188
7.703298
7.728778
8.078633
8.728659
9.654495
10.830722
12.229261
13.817443
15.556097
17.398121
19.287868
21.161631
22.949411
24.577879
25.974380
27.071596
27.812382
28.154232
28.072842
27.564316
26.645742
25.354027
23.743103
21.879833
19.839071
17.698317
15.532639
13.410221
11.388947
9.514171
7.817803
38.320885
38.801289
38.645672
37.865009
36.501869
34.627220
32.335079
29.735550
26.947084
24.088655
21.272675
18.599180
16.151775
13.995403
12.176001
10.721718
9.645355
8.947529
8.620097
8.649355
9.018632
9.709993
10.704891
11.983763
13.524689
15.301359
17.280754
19.420931
21.669395
23.962502
26.226135
28.377977
30.331158
31.999187
33.301678
34.170269
34.554100
34.424191
33.776196
32.631119
31.033968
29.050396
26.761740
24.259026
21.636503
18.985456
16.388792
13.916870
11.624804
9.551335
32.550442
32.965973
32.844734
32.197144
31.060688
29.497234
27.588501
25.430134
23.125097
20.776985
18.483955
16.333712
14.400000
12.740667
11.397342
10.396469
9.751426
9.465259
9.533649
9.947650
10.695829
11.765553
13.143207
14.813383
16.757093
18.949306
21.356205
23.932627
26.620203
29.346716
32.026970
34.565521
36.861080
38.812397
40.325119
41.318890
41.733932
41.536327
40.721348
39.314396
37.369419
34.964966
32.198284
29.178192
26.017338
22.824820
19.699720
16.726107
13.969796
11.477006
27.199938
27.557133
27.470434
26.949982
26.028860
24.760862
23.216713
21.479103
19.637112
17.780560
15.994834
14.356605
12.930776
11.768786
10.908281
10.373968
10.179418
10.329426
10.822584
11.653621
12.815190
14.298803
16.094706
18.190691
20.569929
23.208048
26.069994
29.107050
32.254723
35.431992
38.542324
41.476856
44.119488
46.353794
48.071022
49.178440
49.607094
49.318027
48.306290
46.602077
44.268974
41.399338
38.107452
34.521149
30.772760
26.990446
23.290577
19.771860
16.511538
13.563787
22.363752
22.670540
22.618443
22.217676
21.497728
20.505550
19.302444
17.959948
16.555185
15.166119
13.867146
12.725424
11.798201
11.131275
10.758631
10.703101
10.977880
11.588571
12.535422
13.815387
15.423649
17.354321
19.600069
22.150656
24.990410
28.094934
31.427517
34.935753
38.549080
42.177898
45.714634
49.037304
52.015305
54.517250
56.420162
57.619068
58.035931
57.626926
56.387085
54.351738
51.594528
48.222202
44.366726
40.175697
35.801876
31.393202
27.083988
22.988132
19.194704
15.766089
18.097120
18.362328
18.344967
18.055719
17.521374
16.783398
15.895406
14.919785
13.923832
12.975747
12.140883
11.478538
11.039559
10.864890
10.985109
11.420911
12.184339
13.280582
14.709972
16.469864
18.556032
20.963268
23.684885
26.711088
30.026211
33.605068
37.408966
41.381897
45.447704
49.508942
53.447952
57.130695
60.413116
63.149887
65.204689
66.461029
66.832375
66.270447
64.770561
62.373375
59.162743
55.259903
50.814610
45.994301
40.972260
35.916290
30.978718
26.288666
21.947041
18.024410
14.419827
14.652726
14.670441
14.484523
14.120007
13.614295
13.015129
12.377823
11.762041
11.228400
10.835204
10.635570
10.675190
10.990881
11.609981
12.550614
13.822697
15.429522
17.369625
19.638601
22.230534
25.138624
28.354750
31.867809
35.660824
39.707043
43.965591
48.377228
52.861092
57.313251
61.607632
65.600014
69.134842
72.054688
74.211571
75.478897
75.762711
75.010994
73.219742
70.434982
66.750572
62.301811
57.255669
51.798763
46.124229
40.419052
34.852959
29.569757
24.681746
20.267309
11.321836
11.531751
11.585155
11.494895
11.285195
10.990810
10.655400
10.329263
10.066607
9.922598
9.950435
10.198669
10.709009
11.514762
12.640056
14.099861
15.900787
18.042522
20.519669
23.323629
26.444214
29.870501
33.590603
37.590168
41.849503
46.339523
51.017120
55.820496
60.665459
65.443535
70.022682
74.251198
77.964844
80.996880
83.190140
84.410034
84.556793
83.575691
81.463837
78.272522
74.105003
69.109627
63.469276
57.388283
51.078087
44.743382
38.569923
32.715050
27.301477
22.414713
8.769974
8.965946
9.055963
9.054581
8.986119
8.884033
8.789613
8.750083
8.816244
9.039819
9.470706
10.154369
11.129550
12.426536
14.066124
16.059397
18.408310
21.107077
24.144035
27.503769
31.169050
35.122108
39.344807
43.817501
48.516327
53.409168
58.450798
63.577854
68.704605
73.720619
78.490982
82.860054
86.658592
89.714119
91.863609
92.967232
92.921494
91.670303
89.212357
85.603943
80.956688
75.430367
69.221741
62.550545
55.644127
48.722565
41.985535
35.602062
29.703854
24.382442
6.714947
6.905489
7.033340
7.115151
7.176172
7.249792
7.376483
7.602166
7.976077
8.548285
9.366991
10.475842
11.911453
13.701410
15.862917
18.402300
21.315426
24.589043
28.202829
32.131844
36.348976
40.826824
45.538490
50.456963
55.552799
60.790241
66.122261
71.485191
76.793983
81.939278
86.787041
91.181915
94.954063
97.929604
99.943611
100.000000
100.000000
98.996231
96.172264
92.146088
87.036270
81.011879
74.280754
67.074951
59.634514
52.191780
44.957504
38.109974
31.787943
26.087570
5.097970
5.290907
5.458071
5.618557
5.799271
6.034613
6.365586
6.838325
7.502088
8.406809
9.600316
11.125470
13.017385
15.301083
17.989780
21.084110
24.572357
28.431847
32.631222
37.133373
41.898556
46.887039
52.060734
57.383316
62.818474
68.326347
73.858597
79.352753
84.726959
89.876358
94.672005
98.963501
100.000000
100.000000
100.000000
100.000000
100.000000
100.000000
100.000000
97.633156
92.092255
85.619690
78.431068
70.766937
62.876114
54.999401
47.355148
40.127960
33.461273
27.454184
3.856533
4.058928
4.267107
4.502885
4.795431
5.181038
5.702340
6.406920
7.345328
8.568554
10.125079
12.057719
14.400474
17.175768
20.392342
24.044153
28.110479
32.557365
37.340237
42.407394
47.703941
53.175407
58.770325
64.441353
70.144226
75.834724
81.463860
86.972023
92.283272
97.300850
100.000000
100.000000
100.000000
100.000000
100.000000
100.000000
100.000000
100.000000
100.000000
100.000000
95.908638
89.053726
81.489937
73.462036
65.223114
57.018097
49.068996
41.563358
34.646656
28.419003
2.929078
3.147255
3.398356
3.707117
4.105422
4.632126
5.332317
6.255943
7.455760
8.984655
10.892437
13.222317
16.007324
19.267088
23.005301
27.208317
31.845102
36.868813
42.219788
47.829716
53.626480
59.538857
65.500282
71.451042
77.338181
83.113052
88.726868
94.124657
99.239067
100.000000
100.000000
100.000000
100.000000
100.000000
100.000000
100.000000
100.000000
100.000000
100.000000
100.000000
98.320633
91.162956
83.320717
75.038200
66.567993
58.154488
50.019119
42.348774
35.288116
28.936253
2.258466
2.498122
2.794288
3.174739
3.674363
4.335011
5.204760
6.336488
7.785703
9.607650
11.853772
14.567800
17.781687
21.511915
25.756529
30.493423
35.680187
41.255833
47.144215
53.258930
59.509182
65.805634
72.065445
78.215706
84.194427
89.948814
95.431206
100.000000
100.000000
100.000000
100.000000
100.000000
100.000000
100.000000
100.000000
100.000000
100.000000
100.000000
100.000000
100.000000
99.226723
91.856689
83.843109
75.425102
66.849815
58.356388
50.161377
42.447357
35.355305
28.981291
1.794257
2.060666
2.404394
2.856274
3.454319
4.243575
5.275335
6.605628
8.292873
10.394735
12.964233
16.045408
19.668781
23.847195
28.572432
33.813221
39.515011
45.601856
51.980328
58.545166
65.186165
71.795288
78.273003
84.533028
90.504471
96.130951
100.000000
100.000000
100.000000
100.000000
100.000000
100.000000
100.000000
100.000000
100.000000
100.000000
100.000000
100.000000
100.000000
100.000000
98.595970
91.111176
83.039223
74.609444
66.058891
57.616848
49.490868
41.855705
34.845901
28.552557
1.493990
1.792295
2.186642
2.710842
3.405994
4.320298
5.508197
7.028738
8.943030
11.310823
14.186272
17.613188
21.620060
26.215462
31.384312
37.085648
43.252346
49.793240
56.597488
63.540993
70.494331
77.331047
83.935356
90.208168
96.070404
100.000000
100.000000
100.000000
100.000000
100.000000
100.000000
100.000000
100.000000
100.000000
100.000000
100.000000
100.000000
100.000000
100.000000
100.000000
96.469704
88.970947
80.954468
72.635712
64.237289
55.974514
48.042183
40.604046
33.785736
27.671669
1.323616
1.659199
2.108089
2.706908
3.499643
4.537390
5.877394
7.581252
9.712168
12.331258
15.492993
19.240091
23.598160
28.570742
34.135303
40.240845
46.807632
53.729553
60.878948
68.113792
75.286545
82.253639
88.884369
95.068214
100.000000
100.000000
100.000000
100.000000
100.000000
100.000000
100.000000
100.000000
100.000000
100.000000
100.000000
100.000000
100.000000
100.000000
100.000000
99.754036
92.957550
85.544662
77.693558
69.602234
61.475220
53.510353
45.886486
38.753693
32.226639
26.381613
1.257293
1.636209
2.144830
2.822351
3.715319
4.877275
6.367656
8.249835
10.588164
13.444041
16.871075
20.909704
25.581547
30.884224
36.787167
43.229160
50.118183
57.333996
64.733459
72.158371
79.445160
86.435402
92.985779
98.976517
100.000000
100.000000
100.000000
100.000000
100.000000
100.000000
100.000000
100.000000
100.000000
100.000000
100.000000
100.000000
100.000000
100.000000
100.000000
94.948074
88.228226
80.996109
73.411827
65.653114
57.903648
50.341030
43.125729
36.392086
30.242226
24.743277
1.276727
1.706153
2.281414
3.043986
4.042543
5.332455
6.974526
9.032856
11.571690
14.651278
18.322857
22.623081
27.568235
33.148968
39.326065
46.028072
53.151291
60.562691
68.105637
75.608307
82.894104
89.792931
96.152084
100.000000
100.000000
100.000000
100.000000
100.000000
100.000000
100.000000
100.000000
100.000000
100.000000
100.000000
100.000000
100.000000
100.000000
100.000000
95.098640
89.057739
82.496384
75.531418
68.303093
60.967037
53.684090
46.609829
39.884697
33.625961
27.922188
22.830706
1.370181
1.858870
2.509868
3.366624
4.479437
5.904769
7.703795
9.940069
12.676202
15.969580
19.867239
24.400267
29.578016
35.382942
41.766525
48.647110
55.910187
63.411636
70.983887
78.444748
85.608345
92.296982
98.352562
100.000000
100.000000
100.000000
100.000000
100.000000
100.000000
100.000000
100.000000
100.000000
100.000000
100.000000
100.000000
100.000000
98.667633
93.729668
88.267769
82.334579
76.006592
69.383659
62.585239
55.743835
48.996517
42.475925
36.301689
30.573368
25.365555
20.725552
1.531286
2.089938
2.828372
3.791708
5.031337
6.604010
8.570149
10.991327
13.926785
17.429079
21.538961
26.279892
31.652475
37.629566
44.152561
51.129662
58.436527
65.919945
73.404335
80.700912
87.618935
93.977760
99.618622
100.000000
100.000000
100.000000
100.000000
100.000000
100.000000
100.000000
100.000000
100.000000
100.000000
100.000000
100.000000
95.877975
91.257202
86.221329
80.802094
75.045746
69.016426
62.796703
56.485008
50.190639
44.026836
38.103283
32.518837
27.355425
22.673780
18.511366
1.757706
2.399218
3.239664
4.325572
5.708907
7.445876
9.594975
12.214248
15.357686
19.070869
23.385973
28.316563
33.852432
39.955254
46.555439
53.550999
60.808773
68.168549
75.449905
82.461548
89.012627
94.924759
100.000000
100.000000
100.000000
100.000000
100.000000
100.000000
100.000000
100.000000
100.000000
100.000000
100.000000
96.718277
92.587166
88.117294
83.339844
78.282280
72.974983
67.457069
61.780155
56.009693
50.223598
44.508633
38.954975
33.650158
28.673019
24.088551
19.944242
16.268240
2.049721
2.789241
3.749207
4.977356
6.525766
8.449293
10.803323
13.640794
17.008497
20.942780
25.464808
30.575809
36.252548
42.443729
49.067696
56.012104
63.135876
70.273849
77.243935
83.856537
89.925644
95.280464
99.776550
100.000000
100.000000
100.000000
100.000000
100.000000
100.000000
100.000000
100.000000
97.155159
93.323700
89.150131
84.703659
80.035759
75.184090
70.178223
65.045761
59.818073
54.534328
49.243523
44.004108
38.881645
33.944710
29.260128
24.888086
20.877855
17.264696
14.068259
2.408769
3.263496
4.363174
5.756649
7.495717
9.633157
12.220113
15.302875
18.919086
23.093582
27.834026
33.126781
38.933220
45.187149
51.793579
58.629456
65.546478
72.376419
78.938538
85.048988
90.531425
95.227989
99.009499
100.000000
100.000000
100.000000
100.000000
100.000000
100.000000
97.461609
94.006126
90.092178
85.835510
81.334030
76.665146
71.886391
67.038582
62.151009
57.247070
52.349850
47.486401
42.690235
38.001854
33.467422
29.135872
25.055286
21.269007
17.812180
14.709158
11.972100
2.835998
3.824688
5.086355
6.670944
8.629692
11.012678
13.865782
17.227198
21.123562
25.565987
30.546173
36.033081
41.970295
48.274677
54.836506
61.521416
68.174355
74.625572
80.698387
86.218399
91.023468
94.973686
97.960289
99.912796
100.000000
100.000000
99.501183
97.457039
94.633011
91.163643
87.188850
82.843674
78.249916
73.510345
68.705917
63.896084
59.121506
54.408752
49.775635
45.236553
40.806896
36.505936
32.357983